 Gaussian 03, Revision D.01,
 Gaussian 03:  AM64L-G03RevD.01 13-Oct-2005

 -------------------------------------------------------
 # b3lyp/GENECP 6D int(grid=ultrafine) stable=opt scf=qc
 -------------------------------------------------------

 -----------------------------------------
 comment: from , form a guess using SCF=QC
 -----------------------------------------
 Symbolic Z-matrix:
 Charge =  0 Multiplicity = 1

                         Standard orientation:
 ---------------------------------------------------------------------
 Center     Atomic     Atomic              Coordinates (Angstroms)
 Number     Number      Type              X           Y           Z
 ---------------------------------------------------------------------
    1          6             0       -5.443284    0.865018    0.011647
    2         14             0        0.967035   -2.917302    0.007986
    3         14             0       -0.622609   -1.295724   -2.200650
    4         23             0       -2.693950   -0.109726   -0.010260
    5         14             0       -0.630086   -1.289916    2.199948
    6         14             0        3.224669   -0.750806    0.003320
    7         14             0        1.669777    0.963333   -2.139976
    8         14             0        0.968591    3.246000   -0.001100
    9         14             0        1.654057    0.966396    2.143603
   10          8             0        0.119742   -2.474395   -1.331986
   11          8             0       -2.056687   -0.914437   -1.447607
   12          8             0       -2.052434   -0.941713    1.408930
   13          8             0        0.149426   -2.469087    1.365137
   14          8             0        2.446576   -2.203311   -0.010267
   15          8             0        0.310414    0.042323   -2.268325
   16          8             0       -0.585271    3.751902   -0.000257
   17          8             0        0.281675    0.063261    2.270269
   18          8             0        1.314888    2.332633   -1.334048
   19          8             0        1.319423    2.339348    1.335461
   20          8             0        2.798147    0.088812    1.349731
   21          1             0        1.134097   -4.372499    0.009194
   22          1             0       -0.931691   -1.797912   -3.544016
   23          8             0       -2.223413    1.411693    0.004128
   24          1             0       -0.960894   -1.779067    3.542967
   25          1             0        4.669851   -0.991434    0.015233
   26          1             0        1.816481    4.443474   -0.004202
   27          1             0        2.152559    1.290314    3.484566
   28          8             0        2.824963    0.101267   -1.344212
   29          1             0        2.166174    1.292504   -3.480361
   30          8             0       -4.432446   -0.133594   -0.008525
   31          1             0       -6.073804    0.736801   -0.874417
   32          1             0       -6.048568    0.727287    0.913783
   33          1             0       -4.997671    1.865873    0.010645
   34          1             0       -1.266094    3.052919    0.001436
 ---------------------------------------------------------------------

 SCF Done:  E(RB+HF-LYP) =  -3196.86435643     a.u. after   17 cycles

 The electronic state is 1-A.
 Alpha  occ. eigenvalues --  -66.22345 -66.22343 -66.22158 -66.21779 -66.21732
 Alpha  occ. eigenvalues --  -66.21725 -66.19965 -19.20559 -19.20033 -19.18062
 Alpha  occ. eigenvalues --  -19.18015 -19.16812 -19.16808 -19.16612 -19.16601
 Alpha  occ. eigenvalues --  -19.16450 -19.16243 -19.16237 -19.15487 -19.15487
 Alpha  occ. eigenvalues --  -19.14021 -10.26437  -5.35865  -5.35859  -5.35685
 Alpha  occ. eigenvalues --   -5.35318  -5.35227  -5.35220  -5.33568  -3.71920
 Alpha  occ. eigenvalues --   -3.71915  -3.71900  -3.71894  -3.71743  -3.71723
 Alpha  occ. eigenvalues --   -3.71618  -3.71613  -3.71432  -3.71371  -3.71358
 Alpha  occ. eigenvalues --   -3.71303  -3.71296  -3.71255  -3.71248  -3.71067
 Alpha  occ. eigenvalues --   -3.70977  -3.70971  -3.69656  -3.69544  -3.69332
 Alpha  occ. eigenvalues --   -2.77304  -1.81638  -1.80896  -1.80755  -1.04358
 Alpha  occ. eigenvalues --   -1.02979  -1.02813  -1.02614  -1.01684  -1.00609
 Alpha  occ. eigenvalues --   -1.00543  -0.98788  -0.98773  -0.98446  -0.98045
 Alpha  occ. eigenvalues --   -0.97997  -0.97529  -0.93622  -0.70504  -0.64691
 Alpha  occ. eigenvalues --   -0.61301  -0.60965  -0.58905  -0.56438  -0.56374
 Alpha  occ. eigenvalues --   -0.51459  -0.51369  -0.50770  -0.50570  -0.50400
 Alpha  occ. eigenvalues --   -0.49438  -0.48948  -0.48340  -0.48180  -0.47049
 Alpha  occ. eigenvalues --   -0.44803  -0.44506  -0.43951  -0.43083  -0.42314
 Alpha  occ. eigenvalues --   -0.42025  -0.41992  -0.41324  -0.41035  -0.40436
 Alpha  occ. eigenvalues --   -0.40332  -0.38668  -0.38342  -0.38233  -0.37686
 Alpha  occ. eigenvalues --   -0.37276  -0.36736  -0.36371  -0.36178  -0.36124
 Alpha  occ. eigenvalues --   -0.35987  -0.35292  -0.34838  -0.34771  -0.34721
 Alpha  occ. eigenvalues --   -0.34185  -0.34006  -0.33885  -0.33772  -0.33586
 Alpha  occ. eigenvalues --   -0.33399  -0.32511  -0.32443  -0.31876  -0.30662
 Alpha virt. eigenvalues --   -0.11461  -0.11151  -0.07935  -0.06759  -0.04328
 Alpha virt. eigenvalues --   -0.00460   0.01385   0.01606   0.01769   0.04601
 Alpha virt. eigenvalues --    0.04814   0.04981   0.05284   0.05998   0.06450

 Mulliken atomic charges:
              1
     1  C   -0.204256
     2  Si   1.042227
     3  Si   1.110384
     4  V    1.336547
     5  Si   1.110758
     6  Si   1.042291
     7  Si   1.008764
     8  Si   0.999539
     9  Si   1.009146
    10  O   -0.633083
    11  O   -0.720115
    12  O   -0.720769
    13  O   -0.632946
    14  O   -0.629672
    15  O   -0.625297
    16  O   -0.713683
    17  O   -0.627391
    18  O   -0.613118
    19  O   -0.613008
    20  O   -0.634789
    21  H   -0.079066
    22  H   -0.087212
    23  O   -0.499010
    24  H   -0.087180
    25  H   -0.079418
    26  H   -0.093069
    27  H   -0.090966
    28  O   -0.635172
    29  H   -0.090846
    30  O   -0.580790
    31  H    0.186951
    32  H    0.186898
    33  H    0.190398
    34  H    0.466955
 Sum of Mulliken charges=   0.00000

 Dipole moment (field-independent basis, Debye):
    X=    -2.3325    Y=    -1.4272    Z=     0.0376  Tot=     2.7348
 Quadrupole moment (field-independent basis, Debye-Ang):
   XX=  -165.9312   YY=  -197.3302   ZZ=  -182.2997
   XY=    -4.5851   XZ=    -0.1523   YZ=     0.0217

 Normal termination of Gaussian 03 at Tue Nov 24 14:29:58 2009.
